REMARK  Name = 
REMARK  7 active torsions:
REMARK  status: ('A' for Active; 'I' for Inactive)
REMARK    1  A    between atoms: C_1  and  C_2
REMARK    2  A    between atoms: C_2  and  N_3
REMARK    3  A    between atoms: C_11  and  C_14
REMARK    4  A    between atoms: C_17  and  C_20
REMARK    5  A    between atoms: N_26  and  C_27
REMARK    6  A    between atoms: C_30  and  N_33
REMARK    7  A    between atoms: N_36  and  C_39
REMARK                            x       y       z     vdW  Elec       q    Type
REMARK                         _______ _______ _______ _____ _____    ______ ____
ROOT
ATOM      1  N   UNL     1       0.999   1.891  -1.490  0.00  0.00    -0.292 N 
ATOM      2  C   UNL     1       2.369   1.974  -1.730  0.00  0.00    +0.148 A 
ATOM      3  N   UNL     1       2.833   2.402  -2.972  0.00  0.00    -0.196 NA
ATOM      4  C   UNL     1       4.202   2.485  -3.212  0.00  0.00    +0.221 A 
ATOM      5  N   UNL     1       5.108   2.140  -2.212  0.00  0.00    -0.222 NA
ATOM      6  C   UNL     1       4.643   1.712  -0.970  0.00  0.00    +0.126 A 
ATOM      7  C   UNL     1       3.305   1.617  -0.695  0.00  0.00    +0.037 A 
ATOM      8  C   UNL     1       2.825   1.174   0.588  0.00  0.00    +0.027 A 
ATOM      9  C   UNL     1       1.409   1.089   0.837  0.00  0.00    +0.049 A 
ATOM     10  C   UNL     1       0.094   2.236  -2.490  0.00  0.00    +0.261 A 
ATOM     11  O   UNL     1      -1.155   2.161  -2.271  0.00  0.00    -0.267 OA
ATOM     12  N   UNL     1       4.692   2.937  -4.522  0.00  0.00    -0.284 N 
ATOM     13  H   UNL     1       5.695   2.998  -4.699  0.00  0.00    +0.155 HD
ENDROOT
BRANCH   9  14
ATOM     14  C   UNL     1       0.421   1.465  -0.255  0.00  0.00    +0.006 A 
ATOM     15  C   UNL     1      -0.995   1.380  -0.006  0.00  0.00    +0.049 A 
ATOM     16  C   UNL     1      -1.475   0.937   1.277  0.00  0.00    +0.029 A 
ATOM     17  C   UNL     1      -2.891   0.851   1.526  0.00  0.00    -0.008 A 
ATOM     18  C   UNL     1      -3.371   0.408   2.810  0.00  0.00    +0.010 A 
ATOM     19  C   UNL     1       0.901   1.908  -1.539  0.00  0.00    +0.011 A 
ATOM     20 CL   UNL     1      -2.152   1.821  -1.285  0.00  0.00    -0.083 Cl
BRANCH  17  21
ATOM     21  C   UNL     1      -3.879   1.228   0.434  0.00  0.00    +0.039 A 
ATOM     22  C   UNL     1      -5.295   1.142   0.683  0.00  0.00    +0.127 A 
ATOM     23  N   UNL     1      -5.759   0.714   1.924  0.00  0.00    -0.255 NA
ATOM     24  C   UNL     1      -4.854   0.369   2.925  0.00  0.00    +0.156 A 
ATOM     25  S   UNL     1      -3.307   1.755  -1.095  0.00  0.00    -0.075 S 
ENDBRANCH  17  21
ENDBRANCH   9  14
BRANCH  12  26
ATOM     26  C   UNL     1       3.737   3.301  -5.579  0.00  0.00    +0.034 A 
ATOM     27  C   UNL     1       2.321   3.216  -5.330  0.00  0.00    +0.025 A 
ATOM     28  C   UNL     1       1.841   2.773  -4.046  0.00  0.00    +0.025 A 
ATOM     29  C   UNL     1       0.425   2.687  -3.798  0.00  0.00    +0.030 A 
ATOM     30  C   UNL     1      -0.055   2.244  -2.514  0.00  0.00    +0.025 A 
ATOM     31  C   UNL     1       4.217   3.744  -6.862  0.00  0.00    +0.025 A 
BRANCH  29  32
ATOM     32  N   UNL     1      -0.530   3.051  -4.854  0.00  0.00    -0.320 N 
ATOM     33  C   UNL     1      -1.975   2.964  -4.600  0.00  0.00    +0.156 C 
ATOM     34  C   UNL     1      -2.343   1.531  -4.251  0.00  0.00    +0.150 C 
ATOM     35  N   UNL     1      -1.608   1.116  -3.048  0.00  0.00    +0.235 N 
ATOM     36  C   UNL     1      -1.963   1.999  -1.927  0.00  0.00    +0.150 C 
ATOM     37  C   UNL     1      -0.040   3.503  -6.164  0.00  0.00    +0.156 C 
ATOM     38  C   UNL     1      -1.963  -0.270  -2.710  0.00  0.00    +0.190 C 
ATOM     39  H   UNL     1      -0.605   1.176  -3.224  0.00  0.00    +0.203 HD
ENDBRANCH  29  32
ENDBRANCH  12  26
BRANCH   1  41
ATOM     40  C   UNL     1       1.016   0.032   0.093  0.00  0.00    +0.027 C 
ATOM     41  C   UNL     1       0.509   1.439  -0.179  0.00  0.00    +0.123 C 
ENDBRANCH   1  41
TORSDOF 5
