REMARK  Name = 
REMARK  7 active torsions:
REMARK  status: ('A' for Active; 'I' for Inactive)
REMARK    1  A    between atoms: C_1  and  C_2
REMARK    2  A    between atoms: C_2  and  N_3
REMARK    3  A    between atoms: C_11  and  C_14
REMARK    4  A    between atoms: C_17  and  C_20
REMARK    5  A    between atoms: N_26  and  C_27
REMARK    6  A    between atoms: C_30  and  N_33
REMARK    7  A    between atoms: N_36  and  C_39
REMARK                            x       y       z     vdW  Elec       q    Type
REMARK                         _______ _______ _______ _____ _____    ______ ____
ROOT
ATOM      1  N   UNL     1       0.936  -2.161   1.314  0.00  0.00    -0.292 N 
ATOM      2  C   UNL     1       2.306  -2.282   1.538  0.00  0.00    +0.148 A 
ATOM      3  N   UNL     1       2.770  -2.904   2.695  0.00  0.00    -0.196 NA
ATOM      4  C   UNL     1       4.139  -3.024   2.919  0.00  0.00    +0.221 A 
ATOM      5  N   UNL     1       5.044  -2.523   1.987  0.00  0.00    -0.222 NA
ATOM      6  C   UNL     1       4.580  -1.901   0.830  0.00  0.00    +0.126 A 
ATOM      7  C   UNL     1       3.242  -1.764   0.574  0.00  0.00    +0.037 A 
ATOM      8  C   UNL     1       2.762  -1.121  -0.622  0.00  0.00    +0.027 A 
ATOM      9  C   UNL     1       1.346  -0.996  -0.854  0.00  0.00    +0.049 A 
ATOM     10  C   UNL     1       0.031  -2.663   2.247  0.00  0.00    +0.261 A 
ATOM     11  O   UNL     1      -1.218  -2.553   2.042  0.00  0.00    -0.267 OA
ATOM     12  N   UNL     1       4.629  -3.681   4.140  0.00  0.00    -0.284 N 
ATOM     13  H   UNL     1       5.632  -3.769   4.304  0.00  0.00    +0.155 HD
ENDROOT
BRANCH   9  14
ATOM     14  C   UNL     1       0.358  -1.543   0.164  0.00  0.00    +0.006 A 
ATOM     15  C   UNL     1      -1.058  -1.418  -0.068  0.00  0.00    +0.049 A 
ATOM     16  C   UNL     1      -1.538  -0.775  -1.264  0.00  0.00    +0.029 A 
ATOM     17  C   UNL     1      -2.954  -0.651  -1.495  0.00  0.00    -0.008 A 
ATOM     18  C   UNL     1      -3.434  -0.008  -2.691  0.00  0.00    +0.010 A 
ATOM     19  C   UNL     1       0.838  -2.186   1.360  0.00  0.00    +0.011 A 
ATOM     20 CL   UNL     1      -2.215  -2.059   1.124  0.00  0.00    -0.083 Cl
BRANCH  17  21
ATOM     21  C   UNL     1      -3.942  -1.198  -0.478  0.00  0.00    +0.039 A 
ATOM     22  C   UNL     1      -5.358  -1.073  -0.710  0.00  0.00    +0.127 A 
ATOM     23  N   UNL     1      -5.822  -0.451  -1.866  0.00  0.00    -0.255 NA
ATOM     24  C   UNL     1      -4.917   0.050  -2.799  0.00  0.00    +0.156 A 
ATOM     25  S   UNL     1      -3.370  -1.964   0.946  0.00  0.00    -0.075 S 
ENDBRANCH  17  21
ENDBRANCH   9  14
BRANCH  12  26
ATOM     26  C   UNL     1       3.674  -4.210   5.124  0.00  0.00    +0.034 A 
ATOM     27  C   UNL     1       2.258  -4.085   4.892  0.00  0.00    +0.025 A 
ATOM     28  C   UNL     1       1.778  -3.442   3.696  0.00  0.00    +0.025 A 
ATOM     29  C   UNL     1       0.362  -3.317   3.464  0.00  0.00    +0.030 A 
ATOM     30  C   UNL     1      -0.118  -2.674   2.268  0.00  0.00    +0.025 A 
ATOM     31  C   UNL     1       4.154  -4.853   6.320  0.00  0.00    +0.025 A 
BRANCH  29  32
ATOM     32  N   UNL     1      -0.593  -3.846   4.449  0.00  0.00    -0.320 N 
ATOM     33  C   UNL     1      -2.038  -3.719   4.212  0.00  0.00    +0.156 C 
ATOM     34  C   UNL     1      -2.406  -2.249   4.098  0.00  0.00    +0.150 C 
ATOM     35  N   UNL     1      -1.671  -1.646   2.976  0.00  0.00    +0.235 N 
ATOM     36  C   UNL     1      -2.026  -2.338   1.729  0.00  0.00    +0.150 C 
ATOM     37  C   UNL     1      -0.103  -4.503   5.669  0.00  0.00    +0.156 C 
ATOM     38  C   UNL     1      -2.026  -0.224   2.866  0.00  0.00    +0.190 C 
ATOM     39  H   UNL     1      -0.668  -1.734   3.140  0.00  0.00    +0.203 HD
ENDBRANCH  29  32
ENDBRANCH  12  26
BRANCH   1  41
ATOM     40  C   UNL     1       0.953  -0.073   0.050  0.00  0.00    +0.027 C 
ATOM     41  C   UNL     1       0.446  -1.505   0.094  0.00  0.00    +0.123 C 
ENDBRANCH   1  41
TORSDOF 5
